<?xml version="1.0" encoding="ISO-8859-1"?>
<modeling>
 <generator>
  <i name="program" type="string">vasp </i>
  <i name="version" type="string">5.4.4.18Apr17-6-g9f103f2a35  </i>
  <i name="subversion" type="string">(build Apr 19 2018 18:49:55) complex            parallel </i>
  <i name="platform" type="string">LinuxIFC </i>
  <i name="date" type="string">2024 11 20 </i>
  <i name="time" type="string">08:53:38 </i>
 </generator>
 <incar>
  <i type="string" name="SYSTEM"> NiO</i>
  <i type="int" name="ISTART">     0</i>
  <i type="string" name="PREC">normal</i>
  <i type="int" name="ISPIN">     2</i>
  <i name="AMIX">      0.20000000</i>
  <i name="BMIX">      0.00001000</i>
  <i name="AMIX_MAG">      0.80000000</i>
  <i name="BMIX_MAG">      0.00001000</i>
  <i type="int" name="IBRION">     5</i>
  <i type="int" name="NFREE">     2</i>
  <i name="EDIFF">      0.00100000</i>
  <i name="ENMAX">    250.00000000</i>
  <i name="POTIM">      0.01500000</i>
  <v name="MAGMOM">      2.00000000      2.00000000      2.00000000      2.00000000      2.00000000      2.00000000      2.00000000      2.00000000      2.00000000      2.00000000      2.00000000      2.00000000      2.00000000      2.00000000      2.00000000      2.00000000      2.00000000      2.00000000      2.00000000      2.00000000
      2.00000000      2.00000000      2.00000000      2.00000000      2.00000000      2.00000000      2.00000000      2.00000000      2.00000000      2.00000000      2.00000000      2.00000000      2.00000000      2.00000000      2.00000000      2.00000000      2.00000000      2.00000000      2.00000000      2.00000000
      2.00000000      2.00000000      2.00000000      2.00000000      2.00000000      2.00000000      2.00000000      2.00000000      2.00000000      2.00000000      2.00000000      2.00000000      2.00000000      2.00000000      2.00000000      2.00000000      2.00000000      2.00000000      2.00000000      2.00000000
      2.00000000      2.00000000      2.00000000      2.00000000      2.00000000      2.00000000      2.00000000      2.00000000      2.00000000      2.00000000      2.00000000      2.00000000      2.00000000      2.00000000      2.00000000      2.00000000      2.00000000      2.00000000      2.00000000      2.00000000
      2.00000000      2.00000000      2.00000000      2.00000000      2.00000000      2.00000000      2.00000000      2.00000000      2.00000000      2.00000000      2.00000000      2.00000000      2.00000000      2.00000000      2.00000000      2.00000000      2.00000000      2.00000000      2.00000000      2.00000000
      2.00000000      2.00000000      2.00000000      2.00000000      2.00000000      2.00000000      2.00000000      2.00000000      2.00000000      2.00000000      2.00000000      2.00000000      2.00000000      2.00000000      2.00000000      2.00000000      2.00000000      2.00000000      2.00000000      2.00000000
      2.00000000      2.00000000      2.00000000      2.00000000      2.00000000      2.00000000      2.00000000      2.00000000      2.00000000      2.00000000      2.00000000      2.00000000      2.00000000      2.00000000      2.00000000      2.00000000      2.00000000      2.00000000      2.00000000      2.00000000
      2.00000000      2.00000000      2.00000000      2.00000000      2.00000000      2.00000000      2.00000000      2.00000000      2.00000000      2.00000000      2.00000000      2.00000000      2.00000000      2.00000000      2.00000000      2.00000000      2.00000000      2.00000000      2.00000000      2.00000000
      2.00000000      2.00000000      2.00000000      2.00000000      2.00000000      2.00000000      2.00000000      2.00000000      2.00000000      2.00000000      2.00000000      2.00000000      2.00000000      2.00000000      2.00000000      2.00000000      2.00000000      2.00000000      2.00000000      2.00000000
      2.00000000      2.00000000      2.00000000      2.00000000      2.00000000      2.00000000      2.00000000      2.00000000      2.00000000      2.00000000      2.00000000      2.00000000      2.00000000      2.00000000      2.00000000      2.00000000      2.00000000      2.00000000      2.00000000      2.00000000
      2.00000000      2.00000000      2.00000000      2.00000000      2.00000000      2.00000000      2.00000000      2.00000000      2.00000000      2.00000000      2.00000000      2.00000000      2.00000000      2.00000000      2.00000000      2.00000000      2.00000000      2.00000000      2.00000000      2.00000000
      2.00000000      2.00000000      2.00000000      2.00000000      2.00000000      2.00000000      2.00000000      2.00000000      2.00000000      2.00000000      2.00000000      2.00000000      2.00000000      2.00000000      2.00000000      2.00000000      2.00000000      2.00000000      2.00000000      2.00000000
      2.00000000      2.00000000      2.00000000      2.00000000      2.00000000      2.00000000      2.00000000      2.00000000      2.00000000      2.00000000      2.00000000      2.00000000      0.00000000      0.00000000      0.00000000      0.00000000      0.00000000      0.00000000      0.00000000      0.00000000
      0.00000000      0.00000000      0.00000000      0.00000000      0.00000000      0.00000000      0.00000000      0.00000000      0.00000000      0.00000000      0.00000000      0.00000000      0.00000000      0.00000000      0.00000000      0.00000000      0.00000000      0.00000000      0.00000000      0.00000000
      0.00000000      0.00000000      0.00000000      0.00000000      0.00000000      0.00000000      0.00000000      0.00000000      0.00000000      0.00000000      0.00000000      0.00000000      0.00000000      0.00000000      0.00000000      0.00000000      0.00000000      0.00000000      0.00000000      0.00000000
      0.00000000      0.00000000      0.00000000      0.00000000      0.00000000      0.00000000      0.00000000      0.00000000      0.00000000      0.00000000      0.00000000      0.00000000      0.00000000      0.00000000      0.00000000      0.00000000      0.00000000      0.00000000      0.00000000      0.00000000
      0.00000000      0.00000000      0.00000000      0.00000000      0.00000000      0.00000000      0.00000000      0.00000000      0.00000000      0.00000000      0.00000000      0.00000000      0.00000000      0.00000000      0.00000000      0.00000000      0.00000000      0.00000000      0.00000000      0.00000000
      0.00000000      0.00000000      0.00000000      0.00000000      0.00000000      0.00000000      0.00000000      0.00000000      0.00000000      0.00000000      0.00000000      0.00000000      0.00000000      0.00000000      0.00000000      0.00000000      0.00000000      0.00000000      0.00000000      0.00000000
      0.00000000      0.00000000      0.00000000      0.00000000      0.00000000      0.00000000      0.00000000      0.00000000      0.00000000      0.00000000      0.00000000      0.00000000      0.00000000      0.00000000      0.00000000      0.00000000      0.00000000      0.00000000      0.00000000      0.00000000
      0.00000000      0.00000000      0.00000000      0.00000000      0.00000000      0.00000000      0.00000000      0.00000000      0.00000000      0.00000000      0.00000000      0.00000000      0.00000000      0.00000000      0.00000000      0.00000000      0.00000000      0.00000000      0.00000000      0.00000000
      0.00000000      0.00000000      0.00000000      0.00000000      0.00000000      0.00000000      0.00000000      0.00000000      0.00000000      0.00000000      0.00000000      0.00000000      0.00000000      0.00000000      0.00000000      0.00000000      0.00000000      0.00000000      0.00000000      0.00000000
      0.00000000      0.00000000      0.00000000      0.00000000      0.00000000      0.00000000      0.00000000      0.00000000      0.00000000      0.00000000      0.00000000      0.00000000      0.00000000      0.00000000      0.00000000      0.00000000      0.00000000      0.00000000      0.00000000      0.00000000
      0.00000000      0.00000000      0.00000000      0.00000000      0.00000000      0.00000000      0.00000000      0.00000000      0.00000000      0.00000000      0.00000000      0.00000000      0.00000000      0.00000000      0.00000000      0.00000000      0.00000000      0.00000000      0.00000000      0.00000000
      0.00000000      0.00000000      0.00000000      0.00000000      0.00000000      0.00000000      0.00000000      0.00000000      0.00000000      0.00000000      0.00000000      0.00000000      0.00000000      0.00000000      0.00000000      0.00000000      0.00000000      0.00000000      0.00000000      0.00000000
      0.00000000      0.00000000      0.00000000      0.00000000      0.00000000      0.00000000      0.00000000      0.00000000      0.00000000      0.00000000      0.00000000      0.00000000      0.00000000      0.00000000      0.00000000      0.00000000      0.00000000      0.00000000      0.00000000      0.00000000
      0.00000000      0.00000000      0.00000000      0.00000000</v>
  <i type="int" name="ISMEAR">    -5</i>
  <i type="int" name="LMAXMIX">     4</i>
  <i type="int" name="LORBIT">    11</i>
  <v type="int" name="KPOINT_BSE">    -1     0     0     0</v>
  <i type="logical" name="LDAU"> T  </i>
  <v type="int" name="LDAUTYPE">     2</v>
  <v type="int" name="LDAUL">     2    -1</v>
  <v name="LDAUU">      8.00000000      0.00000000</v>
  <v name="LDAUJ">      0.95000000      0.00000000</v>
  <i type="int" name="LDAUPRINT">     2</i>
 </incar>
 <structure name="primitive_cell" >
  <crystal>
   <varray name="basis" >
    <v>       2.08419997       2.08419997      -0.00000000 </v>
    <v>       2.08419997       0.00000000      -2.08419991 </v>
    <v>       0.00000000       2.08419997      -2.08419991 </v>
   </varray>
   <i name="volume">     18.10706820 </i>
   <varray name="rec_basis" >
    <v>       0.23990021       0.23990021       0.23990021 </v>
    <v>       0.23990021      -0.23990021      -0.23990021 </v>
    <v>      -0.23990021       0.23990021      -0.23990021 </v>
   </varray>
  </crystal>
  <varray name="positions" >
   <v>      -0.50000000       0.50000000       0.50000000 </v>
   <v>      -0.00000004      -0.00000001       0.00000001 </v>
  </varray>
 </structure>
 <varray name="primitive_index" >
  <v type="int" >        1 </v>
  <v type="int" >      265 </v>
 </varray>
 <kpoints>
  <generation param="Gamma">
   <v type="int" name="divisions">       4        4        4 </v>
   <v name="usershift">      0.00000000       0.00000000       0.00000000 </v>
   <v name="genvec1">      0.25000000       0.00000000       0.00000000 </v>
   <v name="genvec2">      0.00000000       0.25000000       0.00000000 </v>
   <v name="genvec3">      0.00000000       0.00000000       0.25000000 </v>
   <v name="shift">      0.00000000       0.00000000       0.00000000 </v>
  </generation>
  <varray name="kpointlist" >
   <v>       0.00000000       0.00000000       0.00000000 </v>
   <v>       0.25000000       0.00000000       0.00000000 </v>
   <v>       0.50000000       0.00000000       0.00000000 </v>
   <v>       0.25000000       0.25000000       0.00000000 </v>
   <v>       0.50000000       0.25000000       0.00000000 </v>
   <v>       0.50000000       0.50000000       0.00000000 </v>
   <v>       0.00000000       0.00000000       0.25000000 </v>
   <v>       0.25000000       0.00000000       0.25000000 </v>
   <v>       0.50000000       0.00000000       0.25000000 </v>
   <v>       0.25000000       0.25000000       0.25000000 </v>
   <v>       0.50000000       0.25000000       0.25000000 </v>
   <v>       0.50000000       0.50000000       0.25000000 </v>
   <v>       0.00000000       0.00000000       0.50000000 </v>
   <v>       0.25000000       0.00000000       0.50000000 </v>
   <v>       0.50000000       0.00000000       0.50000000 </v>
   <v>       0.25000000       0.25000000       0.50000000 </v>
   <v>       0.50000000       0.25000000       0.50000000 </v>
   <v>       0.50000000       0.50000000       0.50000000 </v>
  </varray>
  <varray name="weights" >
   <v>       0.01562500 </v>
   <v>       0.06250000 </v>
   <v>       0.03125000 </v>
   <v>       0.06250000 </v>
   <v>       0.06250000 </v>
   <v>       0.01562500 </v>
   <v>       0.03125000 </v>
   <v>       0.12500000 </v>
   <v>       0.06250000 </v>
   <v>       0.12500000 </v>
   <v>       0.12500000 </v>
   <v>       0.03125000 </v>
   <v>       0.01562500 </v>
   <v>       0.06250000 </v>
   <v>       0.03125000 </v>
   <v>       0.06250000 </v>
   <v>       0.06250000 </v>
   <v>       0.01562500 </v>
  </varray>
  <varray name="tetrahedronlist"  type="int" >
   <v type="int" >        4        1        2        4        7 </v>
   <v type="int" >        4        2        4        7        8 </v>
   <v type="int" >        4        4        7        8       10 </v>
   <v type="int" >        4        2        3        5        8 </v>
   <v type="int" >        4        2        4        5        8 </v>
   <v type="int" >        4        4        5        8       10 </v>
   <v type="int" >        4        3        5        8        9 </v>
   <v type="int" >        4        5        8        9       11 </v>
   <v type="int" >        4        5        8       10       11 </v>
   <v type="int" >        4        2        3        4        9 </v>
   <v type="int" >        4        3        4        5        9 </v>
   <v type="int" >        4        4        5        9       11 </v>
   <v type="int" >        4        2        4        8        9 </v>
   <v type="int" >        4        4        8        9       10 </v>
   <v type="int" >        4        4        9       10       11 </v>
   <v type="int" >        4        1        2        2        8 </v>
   <v type="int" >        4        2        2        4        8 </v>
   <v type="int" >        4        2        4        8       10 </v>
   <v type="int" >        4        1        2        7        8 </v>
   <v type="int" >        4        2        7        8        8 </v>
   <v type="int" >        4        2        8        8       10 </v>
   <v type="int" >        4        4        5        6       10 </v>
   <v type="int" >        4        5        6       10       11 </v>
   <v type="int" >        4        6       10       11       12 </v>
   <v type="int" >        4        4        5        5       11 </v>
   <v type="int" >        4        5        5        6       11 </v>
   <v type="int" >        4        5        6       11       12 </v>
   <v type="int" >        4        4        5       10       11 </v>
   <v type="int" >        4        5       10       11       11 </v>
   <v type="int" >        4        5       11       11       12 </v>
   <v type="int" >        4        2        3        4       10 </v>
   <v type="int" >        4        3        4        5       10 </v>
   <v type="int" >        4        3        5       10       11 </v>
   <v type="int" >        4        2        3        8       10 </v>
   <v type="int" >        4        3        8        9       10 </v>
   <v type="int" >        4        3        9       10       11 </v>
   <v type="int" >        4        4        5        6       12 </v>
   <v type="int" >        4        4        5       11       12 </v>
   <v type="int" >        4        4       10       11       12 </v>
   <v type="int" >        4        2        3        5       11 </v>
   <v type="int" >        4        2        4        5       11 </v>
   <v type="int" >        4        2        4       10       11 </v>
   <v type="int" >        4        2        3        9       11 </v>
   <v type="int" >        4        2        8        9       11 </v>
   <v type="int" >        4        2        8       10       11 </v>
   <v type="int" >        4        1        2        4       10 </v>
   <v type="int" >        4        1        2        8       10 </v>
   <v type="int" >        4        1        7        8       10 </v>
   <v type="int" >        4        7        8       10       13 </v>
   <v type="int" >        4        8       10       13       14 </v>
   <v type="int" >        4       10       13       14       16 </v>
   <v type="int" >        4        8        9       11       14 </v>
   <v type="int" >        4        8       10       11       14 </v>
   <v type="int" >        4       10       11       14       16 </v>
   <v type="int" >        4        9       11       14       15 </v>
   <v type="int" >        4       11       14       15       17 </v>
   <v type="int" >        4       11       14       16       17 </v>
   <v type="int" >        4        8        9       10       15 </v>
   <v type="int" >        4        9       10       11       15 </v>
   <v type="int" >        4       10       11       15       17 </v>
   <v type="int" >        4        8       10       14       15 </v>
   <v type="int" >        4       10       14       15       16 </v>
   <v type="int" >        4       10       15       16       17 </v>
   <v type="int" >        4        7        8        8       14 </v>
   <v type="int" >        4        8        8       10       14 </v>
   <v type="int" >        4        8       10       14       16 </v>
   <v type="int" >        4        7        8       13       14 </v>
   <v type="int" >        4        8       13       14       14 </v>
   <v type="int" >        4        8       14       14       16 </v>
   <v type="int" >        4       10       11       12       16 </v>
   <v type="int" >        4       11       12       16       17 </v>
   <v type="int" >        4       12       16       17       18 </v>
   <v type="int" >        4       10       11       11       17 </v>
   <v type="int" >        4       11       11       12       17 </v>
   <v type="int" >        4       11       12       17       18 </v>
   <v type="int" >        4       10       11       16       17 </v>
   <v type="int" >        4       11       16       17       17 </v>
   <v type="int" >        4       11       17       17       18 </v>
   <v type="int" >        4        8        9       10       16 </v>
   <v type="int" >        4        9       10       11       16 </v>
   <v type="int" >        4        9       11       16       17 </v>
   <v type="int" >        4        8        9       14       16 </v>
   <v type="int" >        4        9       14       15       16 </v>
   <v type="int" >        4        9       15       16       17 </v>
   <v type="int" >        4       10       11       12       18 </v>
   <v type="int" >        4       10       11       17       18 </v>
   <v type="int" >        4       10       16       17       18 </v>
   <v type="int" >        4        8        9       11       17 </v>
   <v type="int" >        4        8       10       11       17 </v>
   <v type="int" >        4        8       10       16       17 </v>
   <v type="int" >        4        8        9       15       17 </v>
   <v type="int" >        4        8       14       15       17 </v>
   <v type="int" >        4        8       14       16       17 </v>
   <v type="int" >        4        7        8       10       16 </v>
   <v type="int" >        4        7        8       14       16 </v>
   <v type="int" >        4        7       13       14       16 </v>
  </varray>
  <i name="volumeweight">      0.00260417 </i>
 </kpoints>
 <parameters>
  <separator name="general" >
   <i type="string" name="SYSTEM">NiO</i>
   <i type="logical" name="LCOMPAT"> F  </i>
  </separator>
  <separator name="electronic" >
   <i type="string" name="PREC">normal</i>
   <i name="ENMAX">    250.00000000</i>
   <i name="ENAUG">    544.56500000</i>
   <i name="EDIFF">      0.00100000</i>
   <i type="int" name="IALGO">    38</i>
   <i type="int" name="IWAVPR">    11</i>
   <i type="int" name="NBANDS">  2671</i>
   <i name="NELECT">   4032.00000000</i>
   <i type="int" name="TURBO">     0</i>
   <i type="int" name="IRESTART">     0</i>
   <i type="int" name="NREBOOT">     0</i>
   <i type="int" name="NMIN">     0</i>
   <i name="EREF">      0.00000000</i>
   <separator name="electronic smearing" >
    <i type="int" name="ISMEAR">    -5</i>
    <i name="SIGMA">      0.20000000</i>
    <i name="KSPACING">      0.50000000</i>
    <i type="logical" name="KGAMMA"> T  </i>
   </separator>
   <separator name="electronic projectors" >
    <i type="logical" name="LREAL"> F  </i>
    <v name="ROPT">      0.00000000      0.00000000</v>
    <i type="int" name="LMAXPAW">  -100</i>
    <i type="int" name="LMAXMIX">     4</i>
    <i type="logical" name="NLSPLINE"> F  </i>
   </separator>
   <separator name="electronic startup" >
    <i type="int" name="ISTART">     0</i>
    <i type="int" name="ICHARG">     2</i>
    <i type="int" name="INIWAV">     1</i>
   </separator>
   <separator name="electronic spin" >
    <i type="int" name="ISPIN">     2</i>
    <i type="logical" name="LNONCOLLINEAR"> F  </i>
    <v name="MAGMOM">      2.00000000      2.00000000      2.00000000      2.00000000      2.00000000      2.00000000      2.00000000      2.00000000      2.00000000      2.00000000      2.00000000      2.00000000      2.00000000      2.00000000      2.00000000      2.00000000      2.00000000      2.00000000      2.00000000      2.00000000
      2.00000000      2.00000000      2.00000000      2.00000000      2.00000000      2.00000000      2.00000000      2.00000000      2.00000000      2.00000000      2.00000000      2.00000000      2.00000000      2.00000000      2.00000000      2.00000000      2.00000000      2.00000000      2.00000000      2.00000000
      2.00000000      2.00000000      2.00000000      2.00000000      2.00000000      2.00000000      2.00000000      2.00000000      2.00000000      2.00000000      2.00000000      2.00000000      2.00000000      2.00000000      2.00000000      2.00000000      2.00000000      2.00000000      2.00000000      2.00000000
      2.00000000      2.00000000      2.00000000      2.00000000      2.00000000      2.00000000      2.00000000      2.00000000      2.00000000      2.00000000      2.00000000      2.00000000      2.00000000      2.00000000      2.00000000      2.00000000      2.00000000      2.00000000      2.00000000      2.00000000
      2.00000000      2.00000000      2.00000000      2.00000000      2.00000000      2.00000000      2.00000000      2.00000000      2.00000000      2.00000000      2.00000000      2.00000000      2.00000000      2.00000000      2.00000000      2.00000000      2.00000000      2.00000000      2.00000000      2.00000000
      2.00000000      2.00000000      2.00000000      2.00000000      2.00000000      2.00000000      2.00000000      2.00000000      2.00000000      2.00000000      2.00000000      2.00000000      2.00000000      2.00000000      2.00000000      2.00000000      2.00000000      2.00000000      2.00000000      2.00000000
      2.00000000      2.00000000      2.00000000      2.00000000      2.00000000      2.00000000      2.00000000      2.00000000      2.00000000      2.00000000      2.00000000      2.00000000      2.00000000      2.00000000      2.00000000      2.00000000      2.00000000      2.00000000      2.00000000      2.00000000
      2.00000000      2.00000000      2.00000000      2.00000000      2.00000000      2.00000000      2.00000000      2.00000000      2.00000000      2.00000000      2.00000000      2.00000000      2.00000000      2.00000000      2.00000000      2.00000000      2.00000000      2.00000000      2.00000000      2.00000000
      2.00000000      2.00000000      2.00000000      2.00000000      2.00000000      2.00000000      2.00000000      2.00000000      2.00000000      2.00000000      2.00000000      2.00000000      2.00000000      2.00000000      2.00000000      2.00000000      2.00000000      2.00000000      2.00000000      2.00000000
      2.00000000      2.00000000      2.00000000      2.00000000      2.00000000      2.00000000      2.00000000      2.00000000      2.00000000      2.00000000      2.00000000      2.00000000      2.00000000      2.00000000      2.00000000      2.00000000      2.00000000      2.00000000      2.00000000      2.00000000
      2.00000000      2.00000000      2.00000000      2.00000000      2.00000000      2.00000000      2.00000000      2.00000000      2.00000000      2.00000000      2.00000000      2.00000000      2.00000000      2.00000000      2.00000000      2.00000000      2.00000000      2.00000000      2.00000000      2.00000000
      2.00000000      2.00000000      2.00000000      2.00000000      2.00000000      2.00000000      2.00000000      2.00000000      2.00000000      2.00000000      2.00000000      2.00000000      2.00000000      2.00000000      2.00000000      2.00000000      2.00000000      2.00000000      2.00000000      2.00000000
      2.00000000      2.00000000      2.00000000      2.00000000      2.00000000      2.00000000      2.00000000      2.00000000      2.00000000      2.00000000      2.00000000      2.00000000      0.00000000      0.00000000      0.00000000      0.00000000      0.00000000      0.00000000      0.00000000      0.00000000
      0.00000000      0.00000000      0.00000000      0.00000000      0.00000000      0.00000000      0.00000000      0.00000000      0.00000000      0.00000000      0.00000000      0.00000000      0.00000000      0.00000000      0.00000000      0.00000000      0.00000000      0.00000000      0.00000000      0.00000000
      0.00000000      0.00000000      0.00000000      0.00000000      0.00000000      0.00000000      0.00000000      0.00000000      0.00000000      0.00000000      0.00000000      0.00000000      0.00000000      0.00000000      0.00000000      0.00000000      0.00000000      0.00000000      0.00000000      0.00000000
      0.00000000      0.00000000      0.00000000      0.00000000      0.00000000      0.00000000      0.00000000      0.00000000      0.00000000      0.00000000      0.00000000      0.00000000      0.00000000      0.00000000      0.00000000      0.00000000      0.00000000      0.00000000      0.00000000      0.00000000
      0.00000000      0.00000000      0.00000000      0.00000000      0.00000000      0.00000000      0.00000000      0.00000000      0.00000000      0.00000000      0.00000000      0.00000000      0.00000000      0.00000000      0.00000000      0.00000000      0.00000000      0.00000000      0.00000000      0.00000000
      0.00000000      0.00000000      0.00000000      0.00000000      0.00000000      0.00000000      0.00000000      0.00000000      0.00000000      0.00000000      0.00000000      0.00000000      0.00000000      0.00000000      0.00000000      0.00000000      0.00000000      0.00000000      0.00000000      0.00000000
      0.00000000      0.00000000      0.00000000      0.00000000      0.00000000      0.00000000      0.00000000      0.00000000      0.00000000      0.00000000      0.00000000      0.00000000      0.00000000      0.00000000      0.00000000      0.00000000      0.00000000      0.00000000      0.00000000      0.00000000
      0.00000000      0.00000000      0.00000000      0.00000000      0.00000000      0.00000000      0.00000000      0.00000000      0.00000000      0.00000000      0.00000000      0.00000000      0.00000000      0.00000000      0.00000000      0.00000000      0.00000000      0.00000000      0.00000000      0.00000000
      0.00000000      0.00000000      0.00000000      0.00000000      0.00000000      0.00000000      0.00000000      0.00000000      0.00000000      0.00000000      0.00000000      0.00000000      0.00000000      0.00000000      0.00000000      0.00000000      0.00000000      0.00000000      0.00000000      0.00000000
      0.00000000      0.00000000      0.00000000      0.00000000      0.00000000      0.00000000      0.00000000      0.00000000      0.00000000      0.00000000      0.00000000      0.00000000      0.00000000      0.00000000      0.00000000      0.00000000      0.00000000      0.00000000      0.00000000      0.00000000
      0.00000000      0.00000000      0.00000000      0.00000000      0.00000000      0.00000000      0.00000000      0.00000000      0.00000000      0.00000000      0.00000000      0.00000000      0.00000000      0.00000000      0.00000000      0.00000000      0.00000000      0.00000000      0.00000000      0.00000000
      0.00000000      0.00000000      0.00000000      0.00000000      0.00000000      0.00000000      0.00000000      0.00000000      0.00000000      0.00000000      0.00000000      0.00000000      0.00000000      0.00000000      0.00000000      0.00000000      0.00000000      0.00000000      0.00000000      0.00000000
      0.00000000      0.00000000      0.00000000      0.00000000      0.00000000      0.00000000      0.00000000      0.00000000      0.00000000      0.00000000      0.00000000      0.00000000      0.00000000      0.00000000      0.00000000      0.00000000      0.00000000      0.00000000      0.00000000      0.00000000
      0.00000000      0.00000000      0.00000000      0.00000000</v>
    <i name="NUPDOWN">     -1.00000000</i>
    <i type="logical" name="LSORBIT"> F  </i>
    <v name="SAXIS">      0.00000000      0.00000000      1.00000000</v>
    <i type="logical" name="LSPIRAL"> F  </i>
    <v name="QSPIRAL">      0.00000000      0.00000000      0.00000000</v>
    <i type="logical" name="LZEROZ"> F  </i>
   </separator>
   <separator name="electronic exchange-correlation" >
    <i type="logical" name="LASPH"> F  </i>
    <i type="logical" name="LMETAGGA"> F  </i>
   </separator>
   <separator name="electronic convergence" >
    <i type="int" name="NELM">    60</i>
    <i type="int" name="NELMDL">    -5</i>
    <i type="int" name="NELMIN">     2</i>
    <i name="ENINI">    250.00000000</i>
    <separator name="electronic convergence detail" >
     <i type="logical" name="LDIAG"> T  </i>
     <i type="logical" name="LSUBROT"> F  </i>
     <i name="WEIMIN">      0.00100000</i>
     <i name="EBREAK">      0.00000009</i>
     <i name="DEPER">      0.30000000</i>
     <i type="int" name="NRMM">     4</i>
     <i name="TIME">      0.40000000</i>
    </separator>
   </separator>
   <separator name="electronic mixer" >
    <i name="AMIX">      0.20000000</i>
    <i name="BMIX">      0.00001000</i>
    <i name="AMIN">      0.10000000</i>
    <i name="AMIX_MAG">      0.80000000</i>
    <i name="BMIX_MAG">      0.00001000</i>
    <separator name="electronic mixer details" >
     <i type="int" name="IMIX">     4</i>
     <i type="logical" name="MIXFIRST"> F  </i>
     <i type="int" name="MAXMIX">   -45</i>
     <i name="WC">    100.00000000</i>
     <i type="int" name="INIMIX">     1</i>
     <i type="int" name="MIXPRE">     1</i>
     <i type="int" name="MREMOVE">     5</i>
    </separator>
   </separator>
   <separator name="electronic dipolcorrection" >
    <i type="logical" name="LDIPOL"> F  </i>
    <i type="logical" name="LMONO"> F  </i>
    <i type="int" name="IDIPOL">     0</i>
    <i name="EPSILON">      1.00000000</i>
    <v name="DIPOL">   -100.00000000   -100.00000000   -100.00000000</v>
    <i name="EFIELD">      0.00000000</i>
   </separator>
  </separator>
  <separator name="grids" >
   <i type="int" name="NGX">    48</i>
   <i type="int" name="NGY">    48</i>
   <i type="int" name="NGZ">   120</i>
   <i type="int" name="NGXF">    96</i>
   <i type="int" name="NGYF">    96</i>
   <i type="int" name="NGZF">   240</i>
   <i type="logical" name="ADDGRID"> F  </i>
  </separator>
  <separator name="ionic" >
   <i type="int" name="NSW">  6085</i>
   <i type="int" name="IBRION">     5</i>
   <i type="int" name="MDALGO">     0</i>
   <i type="int" name="ISIF">     2</i>
   <i name="PSTRESS">      0.00000000</i>
   <i name="EDIFFG">      0.01000000</i>
   <i type="int" name="NFREE">     2</i>
   <i name="POTIM">      0.01500000</i>
   <i name="SMASS">     -3.00000000</i>
   <i name="SCALEE">      1.00000000</i>
  </separator>
  <separator name="ionic md" >
   <i name="TEBEG">      0.00010000</i>
   <i name="TEEND">      0.00010000</i>
   <i type="int" name="NBLOCK">     1</i>
   <i type="int" name="KBLOCK">  6085</i>
   <i type="int" name="NPACO">   256</i>
   <i name="APACO">     16.00000000</i>
  </separator>
  <separator name="symmetry" >
   <i type="int" name="ISYM">     2</i>
   <i name="SYMPREC">      0.00001000</i>
  </separator>
  <separator name="dos" >
   <i type="int" name="LORBIT">    11</i>
   <v name="RWIGS">     -1.00000000     -1.00000000</v>
   <i type="int" name="NEDOS">   301</i>
   <i name="EMIN">     10.00000000</i>
   <i name="EMAX">    -10.00000000</i>
   <i name="EFERMI">      0.00000000</i>
  </separator>
  <separator name="writing" >
   <i type="int" name="NWRITE">     2</i>
   <i type="logical" name="LWAVE"> T  </i>
   <i type="logical" name="LDOWNSAMPLE"> F  </i>
   <i type="logical" name="LCHARG"> T  </i>
   <i type="logical" name="LPARD"> F  </i>
   <i type="logical" name="LVTOT"> F  </i>
   <i type="logical" name="LVHAR"> F  </i>
   <i type="logical" name="LELF"> F  </i>
   <i type="logical" name="LOPTICS"> F  </i>
   <v name="STM">      0.00000000      0.00000000      0.00000000      0.00000000      0.00000000      0.00000000      0.00000000</v>
  </separator>
  <separator name="performance" >
   <i type="int" name="NPAR">     1</i>
   <i type="int" name="NSIM">     4</i>
   <i type="int" name="NBLK">    -1</i>
   <i type="logical" name="LPLANE"> T  </i>
   <i type="logical" name="LSCALAPACK"> T  </i>
   <i type="logical" name="LSCAAWARE"> F  </i>
   <i type="logical" name="LSCALU"> F  </i>
   <i type="logical" name="LASYNC"> F  </i>
   <i type="logical" name="LORBITALREAL"> F  </i>
  </separator>
  <separator name="miscellaneous" >
   <i type="int" name="IDIOT">     3</i>
   <i type="int" name="ISPECIAL">     0</i>
   <i type="logical" name="LMUSIC"> F  </i>
   <v name="POMASS">     58.69000000     16.00000000</v>
   <v name="DARWINR">      0.00000000      0.00000000</v>
   <v name="DARWINV">      1.00000000      1.00000000</v>
   <i type="logical" name="LCORR"> T  </i>
  </separator>
  <i type="logical" name="GGA_COMPAT"> T  </i>
  <i type="logical" name="LBERRY"> F  </i>
  <i type="int" name="ICORELEVEL">     0</i>
  <i type="logical" name="LDAU"> T  </i>
  <v type="int" name="LDAUTYPE">     2</v>
  <v type="int" name="LDAUL">     2</v>
  <v name="LDAUU">      8.00000000</v>
  <v name="LDAUJ">      0.95000000</v>
  <i type="int" name="LDAUPRINT">     2</i>
  <i type="int" name="I_CONSTRAINED_M">     0</i>
  <separator name="electronic exchange-correlation" >
   <i type="string" name="GGA">--</i>
   <i type="int" name="VOSKOWN">     0</i>
   <i type="logical" name="LHFCALC"> F  </i>
   <i type="string" name="PRECFOCK"></i>
   <i type="logical" name="LSYMGRAD"> F  </i>
   <i type="logical" name="LHFONE"> F  </i>
   <i type="logical" name="LRHFCALC"> F  </i>
   <i type="logical" name="LTHOMAS"> F  </i>
   <i type="logical" name="LMODELHF"> F  </i>
   <i name="ENCUT4O">     -1.00000000</i>
   <i type="int" name="EXXOEP">     0</i>
   <i type="int" name="FOURORBIT">     0</i>
   <i name="AEXX">      0.00000000</i>
   <i name="HFALPHA">      0.00000000</i>
   <i name="MCALPHA">      0.00000000</i>
   <i name="ALDAX">      1.00000000</i>
   <i name="AGGAX">      1.00000000</i>
   <i name="ALDAC">      1.00000000</i>
   <i name="AGGAC">      1.00000000</i>
   <i type="int" name="NKREDX">     1</i>
   <i type="int" name="NKREDY">     1</i>
   <i type="int" name="NKREDZ">     1</i>
   <i type="logical" name="SHIFTRED"> F  </i>
   <i type="logical" name="ODDONLY"> F  </i>
   <i type="logical" name="EVENONLY"> F  </i>
   <i type="int" name="LMAXFOCK">     0</i>
   <i type="int" name="NMAXFOCKAE">     0</i>
   <i type="logical" name="LFOCKAEDFT"> F  </i>
   <i name="HFSCREEN">      0.00000000</i>
   <i name="HFSCREENC">      0.00000000</i>
   <i type="int" name="NBANDSGWLOW">     0</i>
  </separator>
  <separator name="vdW DFT" >
   <i type="logical" name="LUSE_VDW"> F  </i>
   <i name="Zab_VDW">     -0.84910000</i>
   <i name="PARAM1">      0.12340000</i>
   <i name="PARAM2">      1.00000000</i>
   <i name="PARAM3">      0.00000000</i>
  </separator>
  <separator name="model GW" >
   <i type="int" name="MODEL_GW">     0</i>
   <i name="MODEL_EPS0">      5.43212013</i>
   <i name="MODEL_ALPHA">      1.00000000</i>
  </separator>
  <separator name="linear response parameters" >
   <i type="logical" name="LEPSILON"> F  </i>
   <i type="logical" name="LRPA"> F  </i>
   <i type="logical" name="LNABLA"> F  </i>
   <i type="logical" name="LVEL"> F  </i>
   <i type="int" name="KINTER">     0</i>
   <i name="CSHIFT">      0.10000000</i>
   <i name="OMEGAMAX">     -1.00000000</i>
   <i name="DEG_THRESHOLD">      0.00200000</i>
   <i name="RTIME">     -0.10000000</i>
   <i name="WPLASMAI">      0.00000000</i>
   <v name="DFIELD">      0.00000000      0.00000000      0.00000000</v>
   <v name="WPLASMA">      0.00000000      0.00000000      0.00000000      0.00000000      0.00000000      0.00000000      0.00000000      0.00000000      0.00000000</v>
  </separator>
  <separator name="orbital magnetization" >
   <i type="logical" name="NUCIND"> F  </i>
   <v name="MAGPOS">      0.00000000      0.00000000      0.00000000</v>
   <i type="logical" name="LNICSALL"> T  </i>
   <i type="logical" name="ORBITALMAG"> F  </i>
   <i type="logical" name="LMAGBLOCH"> F  </i>
   <i type="logical" name="LCHIMAG"> F  </i>
   <i type="logical" name="LGAUGE"> T  </i>
   <i type="int" name="MAGATOM">     0</i>
   <v name="MAGDIPOL">      0.00000000      0.00000000      0.00000000</v>
   <v name="AVECCONST">      0.00000000      0.00000000      0.00000000</v>
  </separator>
  <separator name="response functions" >
   <i type="logical" name="LADDER"> F  </i>
   <i type="logical" name="LRPAFORCE"> F  </i>
   <i type="logical" name="LFXC"> F  </i>
   <i type="logical" name="LHARTREE"> T  </i>
   <i type="int" name="IBSE">     0</i>
   <v type="int" name="KPOINT">    -1     0     0     0</v>
   <i type="logical" name="LTCTE"> F  </i>
   <i type="logical" name="LTETE"> F  </i>
   <i type="logical" name="LTRIPLET"> F  </i>
   <i type="logical" name="LFXCEPS"> F  </i>
   <i type="logical" name="LFXHEG"> F  </i>
   <i type="int" name="NATURALO">     2</i>
   <i type="logical" name="L2ORDER"> F  </i>
   <i type="logical" name="LMP2LT"> F  </i>
   <i type="logical" name="LUSEW"> F  </i>
   <i name="ENCUTGW">     -2.00000000</i>
   <i name="ENCUTGWSOFT">     -2.00000000</i>
   <i name="ENCUTLF">     -1.00000000</i>
   <i type="int" name="LMAXMP2">    -1</i>
   <i name="SCISSOR">      0.00000000</i>
   <i type="int" name="NOMEGA">     0</i>
   <i type="int" name="NOMEGAR">     0</i>
   <i type="int" name="NBANDSGW">    -1</i>
   <i type="int" name="NBANDSO">    -1</i>
   <i type="int" name="NBANDSV">    -1</i>
   <i type="int" name="NELM">     1</i>
   <i type="int" name="NELMHF">     1</i>
   <i type="int" name="DIM">     3</i>
   <i type="int" name="ANTIRES">     0</i>
   <i name="OMEGAMAX">    -30.00000000</i>
   <i name="OMEGAMIN">    -30.00000000</i>
   <i name="OMEGATL">   -200.00000000</i>
   <i type="int" name="OMEGAGRID">   140</i>
   <i name="CSHIFT">     -0.10000000</i>
   <i type="logical" name="SELFENERGY"> F  </i>
   <i type="logical" name="LSPECTRAL"> F  </i>
   <i type="logical" name="LSPECTRALGW"> F  </i>
   <i type="logical" name="LSINGLES"> F  </i>
   <i type="logical" name="LFERMIGW"> F  </i>
   <i type="logical" name="ODDONLYGW"> F  </i>
   <i type="logical" name="EVENONLYGW"> F  </i>
   <i type="int" name="NKREDLFX">     1</i>
   <i type="int" name="NKREDLFY">     1</i>
   <i type="int" name="NKREDLFZ">     1</i>
   <i type="int" name="MAXMEM">  2800</i>
   <i type="int" name="TELESCOPE">     0</i>
   <i type="int" name="TAUPAR">     1</i>
   <i type="int" name="OMEGAPAR">    -1</i>
   <i name="LAMBDA">      1.00000000</i>
  </separator>
  <separator name="External order field" >
   <i name="OFIELD_KAPPA">      0.00000000</i>
   <v name="OFIELD_K">      0.00000000      0.00000000      0.00000000</v>
   <i name="OFIELD_Q6_NEAR">      0.00000000</i>
   <i name="OFIELD_Q6_FAR">      0.00000000</i>
   <i name="OFIELD_A">      0.00000000</i>
  </separator>
 </parameters>
