NiO_Relaxed_SCF                         
   1.00000000000000     
     3.897256    0.000000    0.000000
     0.000000    3.897256    0.000000
     0.000000    0.000000    3.897256
   Ni   O 
     3     4
Direct
  0.000000  0.500000  0.500000
  0.500000  0.000000  0.500000
  0.500000  0.500000  0.000000
  0.500000  0.000000  0.000000
  0.500000  0.500000  0.500000
  0.000000  0.000000  0.500000
  0.000000  0.500000  0.000000
 
   64   64   64
  1.4218      1.4351      1.4732      1.5424      1.6459      1.7960      2.0036      2.2930      2.6894      3.2317    
  3.9635      4.9525      6.2775      8.0634      10.472      13.752      18.220      24.313      32.511      43.947    
  60.597      84.162      115.52      154.39      199.24      247.54      296.22      342.19      382.74      415.87    
  440.24      455.09      460.07      455.09      440.24      415.87      382.74      342.19      296.22      247.54    
  199.24      154.39      115.52      84.162      60.597      43.947      32.511      24.313      18.220      13.752    
  10.472      8.0634      6.2775      4.9525      3.9635      3.2317      2.6894      2.2930      2.0036      1.7960    
  1.6459      1.5424      1.4732      1.4351      1.4351      1.4482      1.4857      1.5538      1.6558      1.8042    
  2.0103      2.2978      2.6904      3.2282      3.9543      4.9350      6.2491      8.0191      10.405      13.651    
  18.069      24.089      32.181      43.426      59.764      82.883      113.68      151.87      196.00      243.58    
  291.58      336.94      377.00      409.75      433.84      448.54      453.47      448.54      433.84      409.75    
  377.00      336.94      291.58      243.58      196.00      151.87      113.68      82.883      59.764      43.426    
  32.181      24.089      18.069      13.651      10.405      8.0191      6.2491      4.9350      3.9543      3.2282    
  2.6904      2.2978      2.0103      1.8042      1.6558      1.5538      1.4857      1.4482      1.4732      1.4857    
  1.5224      1.5885      1.6880      1.8320      2.0323      2.3115      2.6950      3.2193      3.9280      4.8849    
  6.1664      7.8896      10.209      13.355      17.628      23.435      31.221      41.925      57.363      79.198    
  108.34      144.60      186.62      232.08      278.09      321.69      360.29      391.90      415.21      429.43    
  434.21      429.43      415.21      391.90      360.29      321.69      278.09      232.08      186.62      144.60    
  108.34      79.198      57.363      41.925      31.221      23.435      17.628      13.355      10.209      7.8896    
  6.1664      4.8849      3.9280      3.2193      2.6950      2.3115      2.0323      1.8320      1.6880      1.5885    
  1.5224      1.4857      1.5424      1.5538      1.5885      1.6502      1.7442      1.8805      2.0721      2.3394    
  2.7066      3.2089      3.8900      4.8077      6.0374      7.6856      9.8983      12.887      16.931      22.403    
  29.717      39.606      53.674      73.530      100.10      133.32      172.04      214.15      256.99      297.77    
  334.04      363.84      385.87      399.34      403.86      399.34      385.87      363.84      334.04      297.77    
  256.99      214.15      172.04      133.32      100.10      73.530      53.674      39.606      29.717      22.403    
  16.931      12.887      9.8983      7.6856      6.0374      4.8077      3.8900      3.2089      2.7066      2.3394    
  2.0721      1.8805      1.7442      1.6502      1.5885      1.5538      1.6459      1.6558      1.6880      1.7442    
  1.8316      1.9574      2.1363      2.3855      2.7315      3.2041      3.8475      4.7132      5.8739      7.4232    
  9.4976      12.281      16.031      21.071      27.789      36.703      49.100      66.500      89.838      119.20    
  153.67      191.44      230.15      267.25      300.43      327.83      348.17      360.64      364.84      360.64    
  348.17      327.83      300.43      267.25      230.15      191.44      153.67      119.20      89.838      66.500    
  49.100      36.703      27.789      21.071      16.031      12.281      9.4976      7.4232      5.8739      4.7132    
  3.8475      3.2041      2.7315      2.3855      2.1363      1.9574      1.8316      1.7442      1.6880      1.6558    
  1.7960      1.8042      1.8321      1.8805      1.9574      2.0696      2.2325      2.4603      2.7779      3.2142    
  3.8111      4.6139      5.6911      7.1238      9.0348      11.581      14.990      19.538      25.573      33.462    
  44.088      58.809      78.566      103.58      133.21      165.97      199.85      232.60      262.13      286.68    
  304.99      316.25      320.05      316.25      304.99      286.68      262.13      232.60      199.85      165.97    
  133.21      103.58      78.566      58.809      44.088      33.462      25.573      19.538      14.990      11.581    
  9.0348      7.1238      5.6911      4.6139      3.8111      3.2142      2.7779      2.4603      2.2325      2.0696    
  1.9574      1.8805      1.8321      1.8042      2.0036      2.0104      2.0323      2.0721      2.1363      2.2325    
  2.3730      2.5735      2.8575      3.2518      3.7927      4.5249      5.5063      6.8109      8.5414      10.834    
  13.877      17.906      23.214      30.095      39.045      51.124      67.267      87.808      112.35      139.79    
  168.47      196.49      221.98      243.34      259.38      269.30      272.65      269.30      259.38      243.34    
  221.98      196.49      168.47      139.79      112.35      87.808      67.267      51.124      39.045      30.095    
  23.214      17.906      13.877      10.834      8.5414      6.8109      5.5063      4.5249      3.7927      3.2518    
  2.8575      2.5735      2.3730      2.2325      2.1363      2.0721      2.0323      2.0104      2.2930      2.2978    
  2.3115      2.3394      2.3855      2.4603      2.5735      2.7426      2.9854      3.3306      3.8087      4.4623    
  5.3397      6.5085      8.0508      10.085      12.758      16.271      20.851      26.762      34.256      43.970    
  56.755      73.030      92.637      114.79      138.23      161.38      182.68      200.70      214.33      222.80    
  225.67      222.80      214.33      200.70      182.68      161.38      138.23      114.79      92.637      73.030    
  56.755      43.970      34.256      26.762      20.851      16.271      12.758      10.085      8.0508      6.5085    
  5.3397      4.4623      3.8087      3.3306      2.9854      2.7426      2.5735      2.4603      2.3855      2.3394    
  2.3115      2.2978      2.6894      2.6904      2.6950      2.7066      2.7315      2.7779      2.8575      2.9854    
  3.1816      3.4690      3.8778      4.4445      5.2136      6.2405      7.5963      9.3734      11.693      14.711    
  18.610      23.598      29.863      37.654      47.565      60.072      75.188      92.434      110.89      129.35    
  146.52      161.20      172.40      179.40      181.78      179.40      172.40      161.20      146.52      129.35    
  110.89      92.434      75.188      60.072      47.565      37.654      29.863      23.598      18.610      14.711    
  11.693      9.3734      7.5963      6.2405      5.2136      4.4445      3.8778      3.4690      3.1816      2.9854    
  2.8575      2.7779      2.7315      2.7066      2.6950      2.6904      3.2317      3.2282      3.2193      3.2088    
  3.2041      3.2142      3.2518      3.3306      3.4690      3.6897      4.0209      4.4940      5.1495      6.0336    
  7.2059      8.7391      10.729      13.293      16.575      20.730      25.915      32.239      39.912      49.336    
  60.657      73.630      87.646      101.83      115.17      126.70      135.57      141.14      143.05      141.14    
  135.57      126.70      115.17      101.83      87.646      73.630      60.657      49.336      39.912      32.239    
  25.915      20.730      16.575      13.293      10.729      8.7391      7.2059      6.0336      5.1495      4.4940    
  4.0209      3.6897      3.4690      3.3306      3.2518      3.2142      3.2041      3.2088      3.2193      3.2282    
  3.9635      3.9543      3.9280      3.8900      3.8475      3.8111      3.7927      3.8087      3.8778      4.0209    
  4.2631      4.6356      5.1718      5.9134      6.9074      8.2134      9.9024      12.065      14.804      18.238    
  22.480      27.623      33.702      40.829      49.184      58.700      69.019      79.545      89.549      98.272    
  105.04      109.32      110.78      109.32      105.04      98.272      89.549      79.545      69.019      58.700    
  49.184      40.829      33.702      27.623      22.480      18.238      14.804      12.065      9.9024      8.2134    
  6.9074      5.9134      5.1718      4.6356      4.2631      4.0209      3.8778      3.8087      3.7927      3.8111    
  3.8475      3.8900      3.9280      3.9543      4.9525      4.9351      4.8849      4.8078      4.7133      4.6139    
  4.5249      4.4623      4.4445      4.4940      4.6356      4.8962      5.3078      5.9049      6.7278      7.8219    
  9.2425      11.053      13.331      16.157      19.615      23.768      28.649      34.223      40.480      47.427    
  54.895      62.520      69.802      76.196      81.185      84.357      85.445      84.357      81.185      76.196    
  69.802      62.520      54.895      47.427      40.480      34.223      28.649      23.768      19.615      16.157    
  13.331      11.053      9.2425      7.8219      6.7278      5.9049      5.3078      4.8962      4.6356      4.4940    
  4.4445      4.4623      4.5249      4.6139      4.7133      4.8078      4.8849      4.9351      6.2775      6.2491    
  6.1665      6.0374      5.8740      5.6911      5.5063      5.3397      5.2136      5.1495      5.1718      5.3078    
  5.5852      6.0353      6.6908      7.5886      8.7690      10.279      12.170      14.500      17.322      20.683    
  24.597      29.049      33.951      39.195      44.672      50.186      55.430      60.036      63.639      65.935    
  66.723      65.935      63.639      60.036      55.430      50.186      44.672      39.195      33.951      29.049    
  24.597      20.683      17.322      14.500      12.170      10.279      8.7690      7.5886      6.6908      6.0353    
  5.5852      5.3078      5.1718      5.1495      5.2136      5.3397      5.5063      5.6911      5.8740      6.0374    
  6.1665      6.2491      8.0635      8.0191      7.8897      7.6856      7.4233      7.1238      6.8109      6.5085    
  6.2405      6.0336      5.9134      5.9049      6.0353      6.3313      6.8210      7.5332      8.4989      9.7509    
  11.325      13.258      15.585      18.332      21.508      25.087      29.017      33.185      37.430      41.585    
  45.458      48.820      51.436      53.098      53.669      53.098      51.436      48.820      45.458      41.585    
  37.430      33.185      29.017      25.087      21.508      18.332      15.585      13.258      11.325      9.7509    
  8.4989      7.5332      6.8210      6.3313      6.0353      5.9049      5.9134      6.0336      6.2405      6.5085    
  6.8109      7.1238      7.4233      7.6856      7.8897      8.0191      10.472      10.405      10.209      9.8983    
  9.4976      9.0348      8.5414      8.0508      7.5963      7.2059      6.9074      6.7278      6.6908      6.8210    
  7.1413      7.6753      8.4461      9.4778      10.795      12.421      14.376      16.673      19.308      22.262    
  25.474      28.857      32.295      35.627      38.678      41.278      43.270      44.525      44.954      44.525    
  43.270      41.278      38.678      35.627      32.295      28.857      25.474      22.262      19.308      16.673    
  14.376      12.421      10.795      9.4778      8.4461      7.6753      7.1413      6.8210      6.6908      6.7278    
  6.9074      7.2059      7.5963      8.0508      8.5414      9.0348      9.4976      9.8983      10.209      10.405    
  13.752      13.651      13.355      12.887      12.281      11.581      10.834      10.085      9.3734      8.7391    
  8.2134      7.8219      7.5886      7.5333      7.6753      8.0329      8.6245      9.4681      10.581      11.979    
  13.673      15.663      17.941      20.468      23.198      26.046      28.897      31.635      34.127      36.237    
  37.840      38.841      39.182      38.841      37.840      36.237      34.127      31.635      28.897      26.046    
  23.198      20.468      17.941      15.663      13.673      11.979      10.581      9.4681      8.6245      8.0329    
  7.6753      7.5333      7.5886      7.8219      8.2134      8.7391      9.3734      10.085      10.834      11.581    
  12.281      12.887      13.355      13.651      18.220      18.069      17.628      16.931      16.031      14.990    
  13.877      12.758      11.693      10.729      9.9024      9.2425      8.7690      8.4989      8.4461      8.6245    
  9.0483      9.7324      10.690      11.933      13.464      15.277      17.345      19.633      22.065      24.562    
  27.032      29.357      31.423      33.137      34.424      35.221      35.492      35.221      34.424      33.137    
  31.423      29.357      27.032      24.562      22.065      19.633      17.345      15.277      13.464      11.933    
  10.690      9.7324      9.0483      8.6245      8.4461      8.4989      8.7690      9.2425      9.9024      10.729    
  11.693      12.758      13.877      14.990      16.031      16.931      17.628      18.069      24.313      24.089    
  23.435      22.403      21.071      19.538      17.906      16.271      14.711      13.293      12.065      11.054    
  10.279      9.7509      9.4779      9.4681      9.7324      10.283      11.133      12.288      13.748      15.494    
  17.490      19.669      21.961      24.258      26.449      28.466      30.256      31.751      32.876      33.573    
  33.809      33.573      32.876      31.751      30.256      28.466      26.449      24.258      21.961      19.669    
  17.490      15.494      13.748      12.288      11.133      10.283      9.7324      9.4681      9.4779      9.7509    
  10.279      11.054      12.065      13.293      14.711      16.271      17.906      19.538      21.071      22.403    
  23.435      24.089      32.511      32.181      31.221      29.717      27.789      25.573      23.214      20.851    
  18.610      16.575      14.804      13.331      12.170      11.325      10.795      10.581      10.691      11.133    
  11.918      13.051      14.523      16.301      18.325      20.516      22.744      24.956      27.178      29.367    
  31.391      33.094      34.359      35.127      35.384      35.127      34.359      33.094      31.391      29.367    
  27.178      24.956      22.744      20.516      18.325      16.301      14.523      13.051      11.918      11.133    
  10.691      10.581      10.795      11.325      12.170      13.331      14.804      16.575      18.610      20.851    
  23.214      25.573      27.789      29.717      31.221      32.181      43.947      43.426      41.925      39.606    
  36.703      33.462      30.095      26.762      23.598      20.730      18.238      16.157      14.500      13.258    
  12.421      11.979      11.933      12.288      13.052      14.221      15.776      17.663      19.794      22.052    
  24.541      27.421      30.629      33.890      36.870      39.302      41.041      42.064      42.398      42.064    
  41.041      39.302      36.870      33.890      30.629      27.421      24.541      22.052      19.794      17.663    
  15.776      14.221      13.052      12.288      11.933      11.979      12.421      13.258      14.500      16.157    
  18.238      20.730      23.598      26.762      30.095      33.462      36.703      39.606      41.925      43.426    
  60.597      59.764      57.363      53.674      49.100      44.088      39.045      34.256      29.863      25.915    
  22.480      19.615      17.322      15.585      14.376      13.673      13.464      13.748      14.523      15.776    
  17.466      19.506      21.829      24.764      28.688      33.563      38.994      44.399      49.212      53.032    
  55.696      57.228      57.723      57.228      55.696      53.032      49.212      44.399      38.994      33.563    
  28.688      24.764      21.829      19.506      17.466      15.776      14.523      13.748      13.464      13.673    
  14.376      15.585      17.322      19.615      22.480      25.915      29.863      34.256      39.045      44.088    
  49.100      53.674      57.363      59.764      84.162      82.883      79.198      73.530      66.500      58.809    
  51.124      43.970      37.654      32.239      27.623      23.768      20.683      18.332      16.673      15.663    
  15.277      15.494      16.301      17.663      19.506      21.793      25.078      30.066      36.930      45.317    
  54.440      63.330      71.106      77.208      81.432      83.856      84.637      83.856      81.432      77.208    
  71.106      63.330      54.440      45.317      36.930      30.066      25.078      21.793      19.506      17.663    
  16.301      15.494      15.277      15.663      16.673      18.332      20.683      23.768      27.623      32.239    
  37.654      43.970      51.124      58.809      66.500      73.530      79.198      82.883      115.52      113.68    
  108.34      100.10      89.839      78.566      67.267      56.756      47.565      39.912      33.703      28.649    
  24.597      21.508      19.308      17.941      17.345      17.490      18.325      19.794      21.829      25.078    
  30.652      39.166      50.594      64.182      78.667      92.607      104.76      114.31      120.99      124.85    
  126.10      124.85      120.99      114.31      104.76      92.607      78.667      64.182      50.594      39.166    
  30.652      25.078      21.829      19.794      18.325      17.490      17.345      17.941      19.308      21.508    
  24.597      28.649      33.703      39.912      47.565      56.756      67.267      78.566      89.839      100.10    
  108.34      113.68      154.39      151.87      144.60      133.32      119.21      103.58      87.808      73.030    
  60.072      49.336      40.829      34.223      29.049      25.087      22.262      20.468      19.633      19.669    
  20.516      22.052      24.764      30.066      39.166      52.652      70.219      90.699      112.30      133.05    
  151.21      165.66      175.88      181.89      183.86      181.89      175.88      165.66      151.21      133.05    
  112.30      90.699      70.219      52.652      39.166      30.066      24.764      22.052      20.516      19.669    
  19.633      20.468      22.262      25.087      29.049      34.223      40.829      49.336      60.072      73.030    
  87.808      103.58      119.21      133.32      144.60      151.87      199.24      196.00      186.62      172.04    
  153.67      133.21      112.35      92.637      75.188      60.657      49.184      40.480      33.951      29.017    
  25.474      23.198      22.065      21.961      22.744      24.541      28.688      36.930      50.594      70.219    
  95.272      124.17      154.56      183.86      209.77      230.66      245.70      254.67      257.64      254.67    
  245.70      230.66      209.77      183.86      154.56      124.17      95.272      70.219      50.594      36.930    
  28.688      24.541      22.744      21.961      22.065      23.198      25.474      29.017      33.951      40.480    
  49.184      60.657      75.188      92.637      112.35      133.21      153.67      172.04      186.62      196.00    
  247.54      243.58      232.08      214.15      191.44      165.97      139.79      114.79      92.434      73.630    
  58.700      47.427      39.195      33.185      28.857      26.046      24.562      24.258      24.957      27.421    
  33.563      45.317      64.182      90.699      124.17      162.63      203.18      242.57      277.81      306.66    
  327.76      340.50      344.75      340.50      327.76      306.66      277.81      242.57      203.18      162.63    
  124.17      90.699      64.182      45.317      33.563      27.421      24.957      24.258      24.562      26.046    
  28.857      33.185      39.195      47.427      58.700      73.630      92.434      114.79      139.79      165.97    
  191.44      214.15      232.08      243.58      296.23      291.58      278.09      256.99      230.15      199.85    
  168.47      138.23      110.89      87.646      69.019      54.895      44.672      37.430      32.295      28.897    
  27.032      26.449      27.178      30.629      38.994      54.440      78.667      112.30      154.56      203.18    
  254.73      305.28      351.07      389.06      417.22      434.42      440.20      434.42      417.22      389.06    
  351.07      305.28      254.73      203.18      154.56      112.30      78.667      54.440      38.994      30.629    
  27.178      26.449      27.032      28.897      32.295      37.430      44.672      54.895      69.019      87.646    
  110.89      138.23      168.47      199.85      230.15      256.99      278.09      291.58      342.19      336.94    
  321.69      297.77      267.25      232.60      196.49      161.38      129.35      101.83      79.545      62.520    
  50.186      41.585      35.627      31.635      29.357      28.466      29.367      33.890      44.399      63.330    
  92.607      133.05      183.86      242.57      305.28      367.38      424.26      472.03      507.84      529.91    
  537.36      529.91      507.84      472.03      424.26      367.38      305.28      242.57      183.86      133.05    
  92.607      63.330      44.399      33.890      29.367      28.466      29.357      31.635      35.627      41.585    
  50.186      62.520      79.545      101.83      129.35      161.38      196.49      232.60      267.25      297.77    
  321.69      336.94      382.74      377.00      360.29      334.04      300.43      262.13      221.98      182.68    
  146.52      115.17      89.548      69.802      55.430      45.458      38.678      34.127      31.423      30.256    
  31.392      36.870      49.212      71.107      104.76      151.21      209.77      277.82      351.07      424.26    
  491.97      549.41      592.85      619.82      628.95      619.82      592.85      549.41      491.97      424.26    
  351.07      277.82      209.77      151.21      104.76      71.107      49.212      36.870      31.392      30.256    
  31.423      34.127      38.678      45.458      55.430      69.802      89.548      115.17      146.52      182.68    
  221.98      262.13      300.43      334.04      360.29      377.00      415.87      409.75      391.90      363.84    
  327.83      286.68      243.34      200.70      161.20      126.70      98.271      76.196      60.036      48.820    
  41.278      36.237      33.137      31.751      33.094      39.302      53.032      77.208      114.31      165.66    
  230.66      306.66      389.06      472.03      549.41      615.55      665.92      697.36      708.03      697.36    
  665.92      615.55      549.41      472.03      389.06      306.66      230.66      165.66      114.31      77.208    
  53.032      39.302      33.094      31.751      33.137      36.237      41.278      48.820      60.036      76.196    
  98.271      126.70      161.20      200.70      243.34      286.68      327.83      363.84      391.90      409.75    
  440.24      433.84      415.21      385.87      348.17      304.98      259.38      214.33      172.40      135.57    
  105.04      81.185      63.639      51.436      43.270      37.840      34.424      32.876      34.359      41.042    
  55.696      81.433      120.99      175.88      245.70      327.76      417.22      507.84      592.85      665.92    
  721.84      756.85      768.76      756.85      721.84      665.92      592.85      507.84      417.22      327.76    
  245.70      175.88      120.99      81.433      55.696      41.042      34.359      32.876      34.424      37.840    
  43.270      51.436      63.639      81.185      105.04      135.57      172.40      214.33      259.38      304.98    
  348.17      385.87      415.21      433.84      455.09      448.54      429.43      399.34      360.64      316.25    
  269.30      222.80      179.40      141.14      109.32      84.357      65.934      53.098      44.525      38.841    
  35.221      33.573      35.127      42.064      57.228      83.856      124.85      181.89      254.67      340.50    
  434.42      529.91      619.82      697.36      756.85      794.19      806.90      794.19      756.85      697.36    
  619.82      529.91      434.42      340.50      254.67      181.89      124.85      83.856      57.228      42.064    
  35.127      33.573      35.221      38.841      44.525      53.098      65.934      84.357      109.32      141.14    
  179.40      222.80      269.30      316.25      360.64      399.34      429.43      448.54      460.07      453.47    
  434.21      403.86      364.84      320.05      272.65      225.67      181.78      143.05      110.78      85.445    
  66.723      53.669      44.954      39.182      35.492      33.809      35.384      42.398      57.723      84.638    
  126.10      183.86      257.64      344.75      440.20      537.36      628.95      708.03      768.76      806.90    
  819.89      806.90      768.76      708.03      628.95      537.36      440.20      344.75      257.64      183.86    
  126.10      84.638      57.723      42.398      35.384      33.809      35.492      39.182      44.954      53.669    
  66.723      85.445      110.78      143.05      181.78      225.67      272.65      320.05      364.84      403.86    
  434.21      453.47      455.09      448.54      429.43      399.34      360.64      316.25      269.30      222.80    
  179.40      141.14      109.32      84.357      65.934      53.098      44.525      38.841      35.221      33.573    
  35.127      42.064      57.228      83.856      124.85      181.89      254.67      340.50      434.42      529.91    
  619.82      697.36      756.85      794.19      806.90      794.19      756.85      697.36      619.82      529.91    
  434.42      340.50      254.67      181.89      124.85      83.856      57.228      42.064      35.127      33.573    
  35.221      38.841      44.525      53.098      65.934      84.357      109.32      141.14      179.40      222.80    
  269.30      316.25      360.64      399.34      429.43      448.54      440.24      433.84      415.21      385.87    
  348.17      304.98      259.38      214.33      172.40      135.57      105.04      81.185      63.639      51.436    
  43.270      37.840      34.424      32.876      34.359      41.042      55.696      81.433      120.99      175.88    
  245.70      327.76      417.22      507.84      592.85      665.92      721.84      756.85      768.76      756.85    
  721.84      665.92      592.85      507.84      417.22      327.76      245.70      175.88      120.99      81.433    
  55.696      41.042      34.359      32.876      34.424      37.840      43.270      51.436      63.639      81.185    
  105.04      135.57      172.40      214.33      259.38      304.98      348.17      385.87      415.21      433.84    
  415.87      409.75      391.90      363.84      327.83      286.68      243.34      200.70      161.20      126.70    
  98.271      76.196      60.036      48.820      41.278      36.237      33.137      31.751      33.094      39.302    
  53.032      77.208      114.31      165.66      230.66      306.66      389.06      472.03      549.41      615.55    
  665.92      697.36      708.03      697.36      665.92      615.55      549.41      472.03      389.06      306.66    
  230.66      165.66      114.31      77.208      53.032      39.302      33.094      31.751      33.137      36.237    
  41.278      48.820      60.036      76.196      98.271      126.70      161.20      200.70      243.34      286.68    
  327.83      363.84      391.90      409.75      382.74      377.00      360.29      334.04      300.43      262.13    
  221.98      182.68      146.52      115.17      89.548      69.802      55.430      45.458      38.678      34.127    
  31.423      30.256      31.392      36.870      49.212      71.107      104.76      151.21      209.77      277.82    
  351.07      424.26      491.97      549.41      592.85      619.82      628.95      619.82      592.85      549.41    
  491.97      424.26      351.07      277.82      209.77      151.21      104.76      71.107      49.212      36.870    
  31.392      30.256      31.423      34.127      38.678      45.458      55.430      69.802      89.548      115.17    
  146.52      182.68      221.98      262.13      300.43      334.04      360.29      377.00      342.19      336.94    
  321.69      297.77      267.25      232.60      196.49      161.38      129.35      101.83      79.545      62.520    
  50.186      41.585      35.627      31.635      29.357      28.466      29.367      33.890      44.399      63.330    
  92.607      133.05      183.86      242.57      305.28      367.38      424.26      472.03      507.84      529.91    
  537.36      529.91      507.84      472.03      424.26      367.38      305.28      242.57      183.86      133.05    
  92.607      63.330      44.399      33.890      29.367      28.466      29.357      31.635      35.627      41.585    
  50.186      62.520      79.545      101.83      129.35      161.38      196.49      232.60      267.25      297.77    
  321.69      336.94      296.23      291.58      278.09      256.99      230.15      199.85      168.47      138.23    