   7   7   0   0
  0.8456267E+01  0.3897256E-09  0.3897256E-09  0.3897256E-09  0.5000000E-15
  1.000000000000000E-004
  CAR 
 NiO_Relaxed_SCF                         
     15.87372622    -17.62417463  301      4.81257525      1.00000000
    -17.624  0.0000E+00  0.0000E+00
    -17.513  0.0000E+00  0.0000E+00
    -17.401  0.0000E+00  0.0000E+00
    -17.289  0.0000E+00  0.0000E+00
    -17.178  0.0000E+00  0.0000E+00
    -17.066  0.0000E+00  0.0000E+00
    -16.954  0.0000E+00  0.0000E+00
    -16.843  0.0000E+00  0.0000E+00
    -16.731  0.0000E+00  0.0000E+00
    -16.619  0.0000E+00  0.0000E+00
    -16.508  0.0000E+00  0.0000E+00
    -16.396  0.1243E-18  0.1388E-19
    -16.284  0.7923E-09  0.8847E-10
    -16.173  0.4278E-03  0.4777E-04
    -16.061  0.1092E+00  0.1224E-01
    -15.949  0.5503E+00  0.7368E-01
    -15.838  0.9641E+00  0.1813E+00
    -15.726  0.1478E+01  0.3464E+00
    -15.614  0.2466E+01  0.6217E+00
    -15.503  0.3264E+01  0.9861E+00
    -15.391  0.3357E+01  0.1361E+01
    -15.279  0.3205E+01  0.1719E+01
    -15.168  0.1814E+01  0.1921E+01
    -15.056  0.6726E+00  0.1996E+01
    -14.944  0.3191E-01  0.2000E+01
    -14.833  0.4191E-05  0.2000E+01
    -14.721  0.9560E-13  0.2000E+01
    -14.609  0.0000E+00  0.2000E+01
    -14.498  0.0000E+00  0.2000E+01
    -14.386  0.0000E+00  0.2000E+01
    -14.274  0.0000E+00  0.2000E+01
    -14.163  0.1243E-18  0.2000E+01
    -14.051  0.3796E-08  0.2000E+01
    -13.939  0.2233E-02  0.2000E+01
    -13.828  0.6089E+00  0.2068E+01
    -13.716  0.3244E+01  0.2430E+01
    -13.604  0.3754E+01  0.2850E+01
    -13.493  0.3015E+01  0.3186E+01
    -13.381  0.2478E+01  0.3463E+01
    -13.269  0.2162E+01  0.3704E+01
    -13.158  0.6119E+01  0.4387E+01
    -13.046  0.7996E+01  0.5280E+01
    -12.934  0.5675E+01  0.5914E+01
    -12.823  0.7276E+01  0.6726E+01
    -12.711  0.8554E+01  0.7682E+01
    -12.599  0.2768E+01  0.7991E+01
    -12.488  0.8359E-01  0.8000E+01
    -12.376  0.4670E-05  0.8000E+01
    -12.265  0.3892E-13  0.8000E+01
    -12.153  0.0000E+00  0.8000E+01
    -12.041  0.0000E+00  0.8000E+01
    -11.930  0.0000E+00  0.8000E+01
    -11.818  0.0000E+00  0.8000E+01
    -11.706  0.0000E+00  0.8000E+01
    -11.595  0.0000E+00  0.8000E+01
    -11.483  0.0000E+00  0.8000E+01
    -11.371  0.0000E+00  0.8000E+01
    -11.260  0.0000E+00  0.8000E+01
    -11.148  0.0000E+00  0.8000E+01
    -11.036  0.0000E+00  0.8000E+01
    -10.925  0.0000E+00  0.8000E+01
    -10.813  0.0000E+00  0.8000E+01
    -10.701  0.0000E+00  0.8000E+01
    -10.590  0.0000E+00  0.8000E+01
    -10.478  0.0000E+00  0.8000E+01
    -10.366  0.0000E+00  0.8000E+01
    -10.255  0.0000E+00  0.8000E+01
    -10.143  0.0000E+00  0.8000E+01
    -10.031  0.0000E+00  0.8000E+01
     -9.920  0.0000E+00  0.8000E+01
     -9.808  0.0000E+00  0.8000E+01
     -9.696  0.0000E+00  0.8000E+01
     -9.585  0.0000E+00  0.8000E+01
     -9.473  0.0000E+00  0.8000E+01
     -9.361  0.0000E+00  0.8000E+01
     -9.250  0.0000E+00  0.8000E+01
     -9.138  0.0000E+00  0.8000E+01
     -9.026  0.0000E+00  0.8000E+01
     -8.915  0.0000E+00  0.8000E+01
     -8.803  0.0000E+00  0.8000E+01
     -8.691  0.0000E+00  0.8000E+01
     -8.580  0.0000E+00  0.8000E+01
     -8.468  0.0000E+00  0.8000E+01
     -8.356  0.0000E+00  0.8000E+01
     -8.245  0.0000E+00  0.8000E+01
     -8.133  0.0000E+00  0.8000E+01
     -8.021  0.0000E+00  0.8000E+01
     -7.910  0.0000E+00  0.8000E+01
     -7.798  0.0000E+00  0.8000E+01
     -7.686  0.0000E+00  0.8000E+01
     -7.575  0.0000E+00  0.8000E+01
     -7.463  0.0000E+00  0.8000E+01
     -7.351  0.0000E+00  0.8000E+01
     -7.240  0.0000E+00  0.8000E+01
     -7.128  0.0000E+00  0.8000E+01
     -7.017  0.0000E+00  0.8000E+01
     -6.905  0.0000E+00  0.8000E+01
     -6.793  0.0000E+00  0.8000E+01
     -6.682  0.0000E+00  0.8000E+01
     -6.570  0.0000E+00  0.8000E+01
     -6.458  0.0000E+00  0.8000E+01
     -6.347  0.0000E+00  0.8000E+01
     -6.235  0.0000E+00  0.8000E+01
     -6.123  0.0000E+00  0.8000E+01
     -6.012  0.0000E+00  0.8000E+01
     -5.900  0.0000E+00  0.8000E+01
     -5.788  0.0000E+00  0.8000E+01
     -5.677  0.0000E+00  0.8000E+01
     -5.565  0.0000E+00  0.8000E+01
     -5.453  0.0000E+00  0.8000E+01
     -5.342  0.0000E+00  0.8000E+01
     -5.230  0.0000E+00  0.8000E+01
     -5.118  0.0000E+00  0.8000E+01
     -5.007  0.0000E+00  0.8000E+01
     -4.895  0.0000E+00  0.8000E+01
     -4.783  0.0000E+00  0.8000E+01
     -4.672  0.0000E+00  0.8000E+01
     -4.560  0.0000E+00  0.8000E+01
     -4.448  0.5966E-17  0.8000E+01
     -4.337  0.6503E-08  0.8000E+01
     -4.225  0.9327E-03  0.8000E+01
     -4.113  0.1194E+00  0.8013E+01
     -4.002  0.4596E+00  0.8065E+01
     -3.890  0.7149E+00  0.8145E+01
     -3.778  0.9835E+00  0.8254E+01
     -3.667  0.1235E+01  0.8392E+01
     -3.555  0.1570E+01  0.8568E+01
     -3.443  0.1968E+01  0.8787E+01
     -3.332  0.2830E+01  0.9103E+01
     -3.220  0.3285E+01  0.9470E+01
     -3.108  0.3294E+01  0.9838E+01
     -2.997  0.3404E+01  0.1022E+02
     -2.885  0.3473E+01  0.1061E+02
     -2.773  0.3686E+01  0.1102E+02
     -2.662  0.3899E+01  0.1145E+02
     -2.550  0.3089E+01  0.1180E+02
     -2.438  0.2797E+01  0.1211E+02
     -2.327  0.3339E+01  0.1248E+02
     -2.215  0.3608E+01  0.1289E+02
     -2.103  0.4936E+01  0.1344E+02
     -1.992  0.4236E+01  0.1391E+02
     -1.880  0.8612E+00  0.1401E+02
     -1.769  0.2066E+00  0.1403E+02
     -1.657  0.1116E+01  0.1415E+02
     -1.545  0.3650E+01  0.1456E+02
     -1.434  0.5541E+01  0.1518E+02
     -1.322  0.2912E+01  0.1551E+02
     -1.210  0.2206E+01  0.1575E+02
     -1.099  0.5759E+01  0.1639E+02
     -0.987  0.9893E+01  0.1750E+02
     -0.875  0.1038E+02  0.1866E+02
     -0.764  0.8135E+01  0.1957E+02
     -0.652  0.7733E+01  0.2043E+02
     -0.540  0.7845E+01  0.2131E+02
     -0.429  0.6779E+01  0.2206E+02
     -0.317  0.6129E+01  0.2275E+02
     -0.205  0.6162E+01  0.2344E+02
     -0.094  0.4147E+01  0.2390E+02
      0.018  0.5236E+01  0.2448E+02
      0.130  0.3623E+01  0.2489E+02
      0.241  0.4010E+01  0.2534E+02
      0.353  0.2861E+01  0.2565E+02
      0.465  0.3389E+01  0.2603E+02
      0.576  0.2692E+01  0.2633E+02
      0.688  0.2484E+01  0.2661E+02
      0.800  0.2298E+01  0.2687E+02
      0.911  0.2633E+01  0.2716E+02
      1.023  0.1773E+01  0.2736E+02
      1.135  0.2282E+01  0.2761E+02
      1.246  0.1473E+01  0.2778E+02
      1.358  0.1518E+01  0.2795E+02
      1.470  0.1505E+01  0.2812E+02
      1.581  0.1838E+01  0.2832E+02
      1.693  0.2343E+01  0.2858E+02
      1.805  0.3444E+01  0.2897E+02
      1.916  0.3344E+01  0.2934E+02
      2.028  0.3356E+01  0.2972E+02
      2.140  0.2934E+01  0.3004E+02
      2.251  0.3026E+01  0.3038E+02
      2.363  0.2528E+01  0.3066E+02
      2.475  0.3811E+01  0.3109E+02
      2.586  0.4642E+01  0.3161E+02
      2.698  0.6163E+01  0.3230E+02
      2.810  0.6378E+01  0.3301E+02
      2.921  0.7243E+01  0.3382E+02
      3.033  0.8653E+01  0.3478E+02
      3.145  0.8490E+01  0.3573E+02
      3.256  0.8450E+01  0.3667E+02
      3.368  0.1022E+02  0.3782E+02
      3.480  0.1371E+02  0.3935E+02
      3.591  0.1203E+02  0.4069E+02
      3.703  0.6992E+01  0.4147E+02
      3.814  0.1339E+02  0.4297E+02
      3.926  0.2928E+02  0.4624E+02
      4.038  0.7924E+01  0.4712E+02
      4.149  0.6497E+01  0.4785E+02
      4.261  0.7579E+01  0.4869E+02
      4.373  0.9631E+01  0.4977E+02
      4.484  0.1208E+02  0.5112E+02
      4.596  0.1032E+02  0.5227E+02
      4.708  0.8510E+01  0.5322E+02
      4.819  0.7391E+01  0.5404E+02
      4.931  0.6631E+01  0.5478E+02
      5.043  0.5538E+01  0.5540E+02
      5.154  0.4612E+01  0.5592E+02
      5.266  0.4066E+01  0.5637E+02
      5.378  0.3630E+01  0.5678E+02
      5.489  0.4738E+01  0.5731E+02
      5.601  0.3172E+01  0.5766E+02
      5.713  0.3758E+01  0.5808E+02
      5.824  0.3663E+01  0.5849E+02
      5.936  0.3874E+01  0.5892E+02
      6.048  0.2699E+01  0.5922E+02
      6.159  0.3960E+01  0.5967E+02
      6.271  0.3258E+01  0.6003E+02
      6.383  0.2967E+01  0.6036E+02
      6.494  0.3536E+01  0.6076E+02
      6.606  0.3012E+01  0.6109E+02
      6.718  0.2946E+01  0.6142E+02
      6.829  0.1999E+01  0.6164E+02
      6.941  0.1474E+01  0.6181E+02
      7.053  0.1168E+01  0.6194E+02
      7.164  0.5096E+00  0.6200E+02
      7.276  0.3995E-01  0.6200E+02
      7.388  0.2864E-04  0.6200E+02
      7.499  0.5720E-11  0.6200E+02
      7.611  0.0000E+00  0.6200E+02
      7.723  0.0000E+00  0.6200E+02
      7.834  0.0000E+00  0.6200E+02
      7.946  0.0000E+00  0.6200E+02
      8.058  0.0000E+00  0.6200E+02
      8.169  0.0000E+00  0.6200E+02
      8.281  0.0000E+00  0.6200E+02
      8.393  0.0000E+00  0.6200E+02
      8.504  0.0000E+00  0.6200E+02
      8.616  0.0000E+00  0.6200E+02
      8.728  0.0000E+00  0.6200E+02
      8.839  0.0000E+00  0.6200E+02
      8.951  0.0000E+00  0.6200E+02
      9.062  0.0000E+00  0.6200E+02
      9.174  0.0000E+00  0.6200E+02
      9.286  0.0000E+00  0.6200E+02
      9.397  0.0000E+00  0.6200E+02
      9.509  0.2620E-13  0.6200E+02
      9.621  0.4763E-06  0.6200E+02
      9.732  0.1131E-02  0.6200E+02
      9.844  0.2294E-01  0.6200E+02
      9.956  0.4089E-01  0.6201E+02
     10.067  0.8217E-01  0.6202E+02
     10.179  0.5654E-01  0.6202E+02
     10.291  0.1078E+00  0.6203E+02
     10.402  0.1069E+00  0.6205E+02
     10.514  0.1365E+00  0.6206E+02
     10.626  0.1002E+00  0.6207E+02
     10.737  0.1849E+00  0.6209E+02
     10.849  0.1887E+00  0.6211E+02
     10.961  0.1279E+00  0.6213E+02
     11.072  0.2227E+00  0.6215E+02
     11.184  0.2204E+00  0.6218E+02
     11.296  0.2551E+00  0.6221E+02
     11.407  0.2342E+00  0.6223E+02
     11.519  0.1925E+00  0.6225E+02
     11.631  0.4095E+00  0.6230E+02
     11.742  0.2981E+00  0.6233E+02
     11.854  0.3115E+00  0.6237E+02
     11.966  0.3466E+00  0.6241E+02
     12.077  0.3803E+00  0.6245E+02
     12.189  0.4440E+00  0.6250E+02
     12.301  0.5435E+00  0.6256E+02
     12.412  0.4560E+00  0.6261E+02
     12.524  0.5288E+00  0.6267E+02
     12.636  0.8294E+00  0.6276E+02
     12.747  0.6578E+00  0.6284E+02
     12.859  0.1085E+01  0.6296E+02
     12.971  0.7843E+00  0.6304E+02
     13.082  0.1403E+01  0.6320E+02
     13.194  0.1161E+01  0.6333E+02
     13.306  0.1194E+01  0.6346E+02
     13.417  0.1273E+01  0.6361E+02
     13.529  0.9290E+00  0.6371E+02
     13.641  0.8342E+00  0.6380E+02
     13.752  0.5670E+00  0.6387E+02
     13.864  0.3896E+00  0.6391E+02
     13.976  0.3271E+00  0.6395E+02
     14.087  0.1987E+00  0.6397E+02
     14.199  0.1732E+00  0.6399E+02
     14.310  0.8782E-01  0.6400E+02
     14.422  0.1772E-01  0.6400E+02
     14.534  0.1453E-03  0.6400E+02
     14.645  0.7045E-09  0.6400E+02
     14.757  0.0000E+00  0.6400E+02
     14.869  0.0000E+00  0.6400E+02
     14.980  0.0000E+00  0.6400E+02
     15.092  0.0000E+00  0.6400E+02
     15.204  0.0000E+00  0.6400E+02
     15.315  0.0000E+00  0.6400E+02
     15.427  0.0000E+00  0.6400E+02
     15.539  0.0000E+00  0.6400E+02
     15.650  0.0000E+00  0.6400E+02
     15.762  0.0000E+00  0.6400E+02
     15.874  0.0000E+00  0.6400E+02
