NiO_Relaxed_SCF                         
           1
     3.897256    0.000000    0.000000
     0.000000    3.897256    0.000000
     0.000000    0.000000    3.897256
   Ni   O 
   3   4
Direct configuration=     1
   0.00000000  0.50000000  0.50000000
   0.50000000  0.00000000  0.50000000
   0.50000000  0.50000000  0.00000000
   0.50000000  0.00000000  0.00000000
   0.50000000  0.50000000  0.50000000
   0.00000000  0.00000000  0.50000000
   0.00000000  0.50000000  0.00000000
